; Topology by Bartender - www.github.com/rmera/bartender
; Please cite the Bartender reference: XXXXXXXXXXX

[ moleculetype ]
; molname   nrexcl
L59  1

[ atoms ]
; nr type resnr residue atom cgnr charge mass
   1    P1         1    L59     OH         1       0      58
   2    N4a        1    L59     N1         2       0      56
   3    TC3        1    L59     CZ         3       0      28
   4    TN3a       1    L59     NZ         4       0	  42
   5    SC2        1    L59     CA1        5       0      42
   6    TC1        1    L59     CA2        6       0      28
   7    SN4a       1    L59     OA         7       0      58
   8    SC2        1    L59     CA3        8       0      41
   9    C1         1    L59     CA4        9       0      56
  10    SC1        1    L59     CA5       10       0      43
  11    C1         1    L59     CA6       11       0      56
  12    SC1        1    L59     CA7       12       0      43
  13    SC2        1    L59     CB1       13       0      42
  14    TC1        1    L59     CB2       14       0      28
  15    SN4a       1    L59     OB        15       0      58
  16    SC2        1    L59     CB3       16       0      41
  17    C1         1    L59     CB4       17       0	  56
  18    SC1        1    L59     CB5       18       0      43
  19    C1         1    L59     CB6       19       0      56
  20    SC1        1    L59     CB7       20       0      43

[bonds]
; i j  funct    length   force.c.
  1 2   1      0.288     13618.34 ; rmsd:     3.64
  2 3   1      0.306      5903.99 ; rmsd:     1.81
  3 4   1      0.265      7840.29 ; rmsd:     0.96
  4 5   1      0.345      3286.89 ; rmsd:     0.99
  5 6   1      0.306      4968.33 ; rmsd:     1.56
  6 7   1      0.267     11016.93 ; rmsd:     1.59
  7 8   1      0.361     13595.46 ; rmsd:     0.93
  8 9   1      0.399      2912.45 ; rmsd:     2.16
  9 10  1      0.432      3289.89 ; rmsd:     1.38
  8 11  1      0.400      2499.65 ; rmsd:     1.34
 11 12  1      0.422      2812.09 ; rmsd:     1.76
  4 13  1      0.341      2735.96 ; rmsd:     1.13
 13 14  1      0.311      5723.36 ; rmsd:     1.62
 14 15  1      0.265     10572.15 ; rmsd:     1.62
 15 16  1      0.362     12311.21 ; rmsd:     1.14
 16 17  1      0.394      2444.78 ; rmsd:     1.21
 17 18  1      0.419      2499.81 ; rmsd:     1.60
 16 19  1      0.402      2487.21 ; rmsd:     1.45
 19 20  1      0.425      2817.01 ; rmsd:     1.89

[constraints]
; i j  funct    length  

[angles]
; i     j       k       funct   angle   force_constant
  1     2       3          1     133.45     29.01 ; rmsd:     0.99
  2     3       4          1     137.40     14.52 ; rmsd:     1.51
  3     4       5          1     109.59     28.68 ; rmsd:     1.34
  3     4       13         1     108.75     28.46 ; rmsd:     1.48
  4     5       6          1     138.65     25.46 ; rmsd:     1.06
  4     13      14         1     139.48     23.71 ; rmsd:     0.59
  5     4       13         1     130.12     20.59 ; rmsd:     1.25
  5     6       7          1     146.39     13.68 ; rmsd:     2.16
  6     7       8          1     129.44     34.90 ; rmsd:     1.12
  7     8       9          1     97.81     26.23 ; rmsd:     1.44
  7     8       11         1     97.07     19.49 ; rmsd:     1.50
  8     9       10         1     143.21     21.70 ; rmsd:     1.16
  8     11      12         1     140.76     19.50 ; rmsd:     1.27
  9     8       11         1     138.64     16.79 ; rmsd:     1.07
 13     14      15         1     145.29     17.40 ; rmsd:     1.98
 14     15      16         1     129.12     30.43 ; rmsd:     1.18
 15     16      17         1     97.44     24.32 ; rmsd:     1.12
 15     16      19         1     101.28     18.57 ; rmsd:     1.55
 16     17      18         1     138.00     17.82 ; rmsd:     0.89
 16     19      20         1     138.95     18.98 ; rmsd:     0.98
 17     16      19         1     138.65     23.86 ; rmsd:     0.85
;;  1     2       3          2     123.69     53.53 ; Harmonic-Cos (Gromos96) potential rmsd:     1.84
;;  2     3       4          2     125.38     25.44 ; Harmonic-Cos (Gromos96) potential rmsd:     1.51
;;  3     4       5          2     103.84     42.76 ; Harmonic-Cos (Gromos96) potential rmsd:     1.42
;;  3     4       13         2     103.78     40.29 ; Harmonic-Cos (Gromos96) potential rmsd:     1.66
;;  4     5       6          2     128.69     46.07 ; Harmonic-Cos (Gromos96) potential rmsd:     1.79
;;  4     13      14         2     129.38     41.47 ; Harmonic-Cos (Gromos96) potential rmsd:     1.42
;;  5     4       13         2     120.24     36.10 ; Harmonic-Cos (Gromos96) potential rmsd:     1.29
;;  5     6       7          2     130.97     28.99 ; Harmonic-Cos (Gromos96) potential rmsd:     2.23
;;  6     7       8          2     120.97     67.17 ; Harmonic-Cos (Gromos96) potential rmsd:     1.96
;;  7     8       9          2     94.59     37.43 ; Harmonic-Cos (Gromos96) potential rmsd:     1.11
;;  7     8       11         2     93.94     26.90 ; Harmonic-Cos (Gromos96) potential rmsd:     1.61
;;  8     9       10         2     223.50     34.40 ; Harmonic-Cos (Gromos96) potential rmsd:     1.69
;;  8     11      12         2     131.37     33.46 ; Harmonic-Cos (Gromos96) potential rmsd:     1.52
;;  9     8       11         2     127.99     29.46 ; Harmonic-Cos (Gromos96) potential rmsd:     1.02
;; 13     14      15         2     131.64     37.77 ; Harmonic-Cos (Gromos96) potential rmsd:     2.09
;; 14     15      16         2     120.92     55.79 ; Harmonic-Cos (Gromos96) potential rmsd:     1.59
;; 15     16      17         2     94.34     34.00 ; Harmonic-Cos (Gromos96) potential rmsd:     1.18
;; 15     16      19         2     96.31     28.81 ; Harmonic-Cos (Gromos96) potential rmsd:     1.32
;; 16     17      18         2     127.62     30.38 ; Harmonic-Cos (Gromos96) potential rmsd:     1.17
;; 16     19      20         2     129.29     32.45 ; Harmonic-Cos (Gromos96) potential rmsd:     1.06
;; 17     16      19         2     128.25     41.61 ; Harmonic-Cos (Gromos96) potential rmsd:     1.38

[angles]
; i     j       k       funct   angle   force_constant
; ReB

[dihedrals]
; i     j       k    l       funct   phase       kd    pn

;Improper 
; i     j       k    l       funct   angle       kd    
