integrator               = md
dt                       = 0.01 
nsteps                   = 2500000 
nstxout                  = 0 
nstvout                  = 0
nstfout                  = 0
nstlog                   = 25000 
nstxout-compressed       = 25000
nstenergy                = 25000
compressed-x-precision   = 100

nstcomm                  = 100
comm-grps                = Bilayer Solvent

cutoff-scheme            = Verlet
nstlist                  = 20
nsttcouple               = 20
nstpcouple               = 20
rlist                    = 1.35
verlet-buffer-tolerance  = -1
ns_type                  = grid
pbc                      = xyz

coulombtype              = reaction-field 
rcoulomb                 = 1.1
epsilon_r                = 15    ; 2.5 (with polarizable water)
epsilon_rf               = 0
vdw_type                 = cutoff  
vdw-modifier             = Potential-shift-verlet
rvdw                     = 1.1

tcoupl                   = v-rescale 
tc-grps                  = Bilayer Solvent
tau-t                    = 1.0 1.0
ref-t                    = 263 263

Pcoupl                   = c-rescale
Pcoupltype               = semiisotropic
tau-p                    = 12.0
compressibility          = 3.4e-4 3.4e-4
ref-p                    = 1.0 1.0

gen_vel                  = no
continuation             = yes
lincs-order              = 12
lincs-iter               = 2
